<?xml version="1.0" encoding="UTF-8"?>
<VTKFile type="UnstructuredGrid" version="0.1" byte_order="LittleEndian">
<UnstructuredGrid>
<Piece NumberOfPoints="725" NumberOfCells="1280">
<PointData>
<DataArray type="Float64" Name="p_@_t=0" Format="ascii">
-1581226.1445729185
-1581322.1201591103
-1582188.881445975
-1582428.0484542765
-1583797.8727368459
-1584026.4364732667
-1581482.0924038067
-1582665.2311018452
-1586009.857543288
-1586222.285642967
-1584273.0360182803
-1581662.4693809089
-1582847.2190391757
-1588683.7248162304
-1588887.1361164784
-1586457.5739460946
-1584468.593627381
-1581824.2979392458
-1582968.6227108538
-1591659.817674512
-1591848.9746795222
-1589113.5517981525
-1586655.940076856
-1584600.2365464221
-1581950.7454609715
-1583039.3595134185
-1594785.8259043733
-1594949.9168111314
-1592059.377047196
-1589305.6620790965
-1586799.5018971297
-1584680.832937929
-1582039.8796109583
-1583075.053969717
-1597938.4728957831
-1598060.982356488
-1595131.2222580914
-1592237.2845177252
-1589445.7832283648
-1586892.5459682913
-1584728.144638698
-1582097.3707044933
-1583090.8572497764
-1601025.1518182503
-1601082.302492521
-1598194.2522115042
-1595283.3059663305
-1592366.3891736194
-1589537.0466936473
-1586947.9124738115
-1584755.9438794982
-1582131.5021225666
-1583097.516298388
-1603980.3256329438
-1603939.8283241484
-1601141.079985249
-1598303.7640704568
-1595392.8071981384
-1592450.248304214
-1589591.452828065
-1586978.841341142
-1584772.4165037023
-1582150.0840430052
-1583100.6794397146
-1606763.3459350273
-1606583.6527210255
-1603889.4126730112
-1601185.477108118
-1598380.9331392169
-1595463.325902658
-1592500.3178865686
-1589622.0963763744
-1586995.4381075017
-1584781.910885597
-1582159.065493091
-1583102.5322611688
-1609359.0381320782
-1608988.956016217
-1606380.617920138
-1603840.1844514403
-1601213.7978292978
-1598429.564610929
-1595505.054236867
-1592528.5880254393
-1589638.9697406972
-1587004.123793621
-1584786.969906713
-1611778.9792131253
-1611159.1441918905
-1608580.5949854443
-1606203.10825706
-1603799.361792291
-1601229.7373452175
-1598457.8223051778
-1595528.4650914418
-1592544.1089024842
-1589648.150513322
-1587008.511902087
-1614057.850460681
-1613129.5419854946
-1610483.2615828584
-1608233.200173556
-1606068.9115773174
-1603769.5632060184
-1601238.0775837528
-1598473.5514953793
-1595541.3415409098
-1592552.4780151565
-1589652.937016595
-1616240.6279856921
-1614965.794391663
-1612116.286626962
-1609915.1911876127
-1607976.4201815184
-1605977.8634192792
-1603750.2506303547
-1601242.5365373327
-1598482.2862178676
-1595548.3825616208
-1592556.8105629906
-1618368.2545951926
-1616747.8052545718
-1613548.2576220098
-1611263.2178758988
-1609498.3247304533
-1607804.955375429
-1605921.5951642299
-1603739.1231756632
-1601245.2354058342
-1598487.205992949
-1595552.1235018678
-1620472.7062494187
-1618545.2625404578
-1614888.3429405594
-1612326.79901739
-1610633.7943050829
-1609220.4578382652
-1607699.8151351847
-1605889.5749317918
-1603733.478837532
-1601247.0940461827
-1598489.9581693206
-1622579.5020919847
-1620405.070826263
-1616259.6735380979
-1613205.8158935702
-1611407.0279111287
-1610210.1650310555
-1609049.3010994243
-1607639.8247441913
-1605872.6856678103
-1603731.0992651314
-1601248.4426137654
-1624709.3772316296
-1622360.6489382333
-1617760.864711361
-1614062.9123298891
-1611876.7030810225
-1610774.5019036678
-1609945.9450226843
-1608950.7838400882
-1607607.7087299353
-1605864.5587766613
-1603730.5008679824
-1626875.9289645727
-1624478.1596773933
-1619460.5714833639
-1615082.9918711402
-1612178.9455508129
-1610931.4632079985
-1610370.5955367396
-1609791.3265244495
-1608897.3395293492
-1607591.7746057557
-1605861.3039499822
-1629207.1695413487
-1626917.553719133
-1621425.474974622
-1616403.8378452803
-1612573.2762165687
-1610733.3878425544
-1610307.6393579294
-1610129.974286195
-1609706.3226209397
-1608870.2838696174
-1607584.9298249225
-1623782.930447179
-1618118.184811302
-1613353.8430807362
-1610391.1020191482
-1609743.2215477575
-1609921.690355746
-1609994.6056516555
-1609662.9009998462
-1608858.2493202742
-1620383.7709043282
-1614728.5092739575
-1610393.6320024845
-1608699.866230602
-1609110.7836930486
-1609702.7985038455
-1609924.076365676
-1609643.2697105198
-1616884.3572132755
-1611252.7073026223
-1607633.8473389908
-1607581.3966822817
-1608723.3458401798
-1609586.9718107514
-1609891.9839441583
-1613261.2912851581
-1607608.576542179
-1605314.7831166615
-1606915.7095152827
-1608518.4181120223
-1609531.7878006466
-1609352.5361336684
-1603737.1882590281
-1603767.6884459313
-1606499.8413399893
-1608427.052352511
-1604875.5592492227
-1599742.9812180428
-1603034.8586578867
-1606282.0176841808
-1599532.2610947178
-1596379.9037113208
-1602653.022749
-1592116.701709154
-1594934.7164505343
-1581130.1773762018
-1582160.9420105524
-1583102.9956712625
-1584788.0834493842
-1582162.3753537245
-1583103.5422325556
-1587009.4391148593
-1584789.0079809313
-1582163.0163942862
-1583104.0761739165
-1589653.9771636163
-1587010.2933731363
-1584789.6330420924
-1582162.9704089775
-1583104.4999074107
-1592557.7522192616
-1589654.8865066613
-1587010.9032306937
-1584789.9195910688
-1595552.9712219217
-1592558.5970304853
-1589655.512576793
-1587011.2286568964
-1598490.6332313896
-1595553.7347300423
-1592559.1942631935
-1589655.8210283504
-1601248.8783109793
-1598491.2593951554
-1595554.2971459797
-1592559.5035386279
-1603730.6088078194
-1601249.3104905563
-1598491.7652973246
-1595554.604746648
-1605860.9417699226
-1603730.772504955
-1601249.7377173274
-1598492.0752420158
-1607584.0099104096
-1605860.7361219807
-1603731.0919154722
-1601250.0519094542
-1608856.2547661376
-1607583.3135138813
-1605860.9048026272
-1603731.4127793994
-1609640.6128751943
-1608854.8392251448
-1607583.289242263
-1605861.23487775
-1609884.9904009455
-1609638.126980894
-1608854.498916515
-1607583.629996282
-1609528.5514550135
-1609881.0360846464
-1609637.4339851795
-1608854.8548020301
-1608389.3597706198
-1609520.0063606696
-1609879.4126488753
-1609637.809715994
-1606327.3904476503
-1608382.682380044
-1609517.7457769809
-1609879.8012880425
-1602250.883635025
-1606272.2159679243
-1608376.3843492344
-1609518.3087286064
-1596040.2854343283
-1602299.0758334845
-1606264.0728944154
-1608376.3874773106
-1572060.2072589134
-1595457.0784123675
-1602265.1488985626
-1606267.4589096098
-1570552.9200702682
-1595408.7271631148
-1602255.3455246538
-1569230.4626394797
-1595455.0159503308
-1569093.652664111
47047.35946042152
44757.74363847828
44716.11888771954
42318.349600055204
42549.567162649415
40200.838868949715
41623.12037109529
39265.66490240369
40419.69202938006
38245.26076604226
37300.76142039729
38223.96083056557
35958.37474307441
38312.896193869085
36385.452490330616
35601.05465871201
34244.02778969145
34724.54714174425
32568.6992102331
36208.44454641407
34587.99521408598
34099.863496343074
32923.18182775958
31194.03303375042
31101.4812162256
29092.89724523937
34080.81794199463
32805.98435736655
32728.532907480705
31903.102296769368
30413.466183874043
28233.821967110034
27192.726070063716
25448.76649332614
31898.040417320215
30969.731949516765
31388.44759183553
31046.005865366562
30019.135525179125
28231.291998136585
25474.03731903707
22715.74918691289
21577.378222874097
29619.169160532314
28999.33414070258
29956.476590246464
30166.9889869988
29716.893054919954
28573.577822850384
26540.056221504117
23154.973117485017
17372.451052091033
17583.171203571626
27199.228053871553
26829.145927187266
28323.451523979376
29103.40783371995
29247.2178782034
28771.65318285353
27583.41153297772
25421.586684343376
21607.87847523889
9956.89157729723
14220.093767781897
24603.535802618375
24423.84255506604
26420.784876404054
27755.381116125573
28473.984255580726
28614.691867833404
28147.82933359097
26950.97368216397
24755.899524311437
20875.048700879346
-1029.6328878542583
12774.906651594813
21820.515391545498
21780.018010761152
24220.80771109794
26073.390039926384
27338.514644977764
28050.354974215603
28210.785498227553
27761.88033187487
26563.53583205682
24340.031353765055
20493.212760493985
18865.341355686094
18922.49189957896
21729.602278051825
24043.298001965413
25816.610023010766
27060.647739722586
27786.134959639585
27970.1642455139
27542.988479987263
26358.608105117237
24122.20771208409
15778.661957998787
15901.171232422412
18981.26925651977
21680.373974181122
23909.10127971958
25645.145195288835
26889.49099008795
27631.516456709713
27834.79560952814
27427.161786924677
26267.242341994355
12626.013852358843
12790.104679832019
16034.440911592857
19025.666255423188
21639.55124472517
23818.05308606264
25540.004938307447
26790.97372311476
27546.512549999403
27764.266322547206
27371.97777835708
9500.003078482398
9689.16069898865
12971.410080393303
16143.9526345808
19053.986875573217
21609.752606951246
23761.784805069405
25480.01453496825
26737.529407576036
27503.09092736629
27732.17389969952
6523.905666655312
6727.319031407986
9899.56363231874
13123.493757394977
16221.121617838633
19069.926320777446
21590.439994520046
23729.764557335533
25447.898513030494
26710.473744164123
27483.459638169687
3850.0332077235116
4062.464307411714
6953.736424384261
10077.471494077796
13232.99498020656
16269.753032661576
19078.266524976785
21579.31251372914
23712.875283067817
25431.964387196353
26698.439191120175
1638.045720168123
1866.611256809777
4297.754910515703
7145.847966471633
10206.576341621643
13303.513719948478
16298.010675391188
19082.725466125605
21573.668167408767
23704.74837913885
25425.119609658173
29.05517954494645
268.22135019436547
2113.21172712583
4496.123041947036
7285.969897745872
10290.435503609446
13345.242117110654
16313.739844008545
19085.42430625725
21571.288610103253
23701.49353699369
-933.679837043902
-837.7078240882577
505.40305400617973
2308.7702111203753
4639.686468175639
7377.2337618884885
10340.50509167558
13368.652952713992
16322.474633129483
19087.282885704728
21570.690240453212
-677.737247926118
687.3898006192516
2440.414401971962
4732.731669922757
7431.639859174396
10368.775476333987
13381.529179376908
16327.394552417236
19088.631384021468
-497.3606107478855
808.7924205956435
2521.0119371873075
4788.099379887094
7462.282620233811
10384.297017776842
13388.569865518728
16330.146870055376
-335.5314825278614
879.5293912453119
2568.323175900688
4819.030458342147
7479.154410392319
10392.666819065364
13392.310556136736
-209.08254743349227
915.2261856871457
2596.1194045487905
4835.630208255461
7488.334225737749
10396.999646648805
-119.94414471886762
931.0321323987254
2612.589340533057
4844.315327375601
7493.121237663422
-62.43634428169792
937.6829187171187
2622.0955051113137
4848.698091647361
-28.239417505480503
940.782832429215
2627.1813452067768
-9.398319403856826
942.5245036909638
0
-10099.603590091092
13880.47577439872
20091.073605617654
-11606.890428477303
13297.268665127835
24167.58048955488
20139.265826269664
-12929.347818213528
13248.91738898465
26229.549755383363
24112.406005225068
20105.338899386745
-13066.157786931471
13295.206168557967
27368.741434490537
26222.87236573733
24104.26292989823
20095.535527934822
27725.18035553838
27360.19634010845
26216.574335336503
24107.64894430155
27480.802803535254
27721.226039007503
27357.935756384722
26216.57746366185
26696.44463501924
27478.316909440844
27719.602603124564
27358.498707936196
25424.19969879854
26695.029093053283
27477.623913813353
27719.991242267733
23701.131346213155
25423.503303853584
26694.68878395588
27477.999644753443
21570.798207202602
23700.92569321547
25423.479032905052
26695.044668859417
19089.067004536282
21570.961916125936
23701.09437171495
25423.81978902701
16330.82215724634
19089.499151763004
21571.2813310667
23701.424438967624
13393.157582577838
16331.448409428944
19089.926367572345
21571.60222309645
10397.943533490507
13393.920839068007
16331.95433695679
19090.24045872159
7494.153979672954
10398.789093656645
13394.483196920053
16332.26464183809
4849.650484658494
7495.0610038849045
10399.386458017898
13394.789516012188
2628.2078031784945
4850.512200586523
7495.686785539462
10399.700284669061
943.292453180233
2629.107537634989
4851.122665120332
7495.979100039768
0.8022255782204055
943.9236674897134
2629.731394262594
4851.505248639775
1.9395829763588253
944.459793295746
2629.815652483917
2.5762891784439077
945.5990700272235
0
-1524958.2940977735
-1526746.9500415542
-1491010.117810878
-1490655.2386650974
-1526915.8621272147
-1440204.3572445028
-1440257.8261999306
-1490689.8425126516
-1527412.8661310768
-1385779.754265316
-1385778.798521101
-1440224.6851014523
-1490463.914140249
-1527619.682962586
-1319962.4880580017
-1319958.0614757023
-1385798.2129784091
-1440320.8920894496
-1490343.2178527089
-1244378.6589418335
-1244381.5936996578
-1319948.5116592918
-1385758.42945335
-1440377.4424279046
-1155581.8385058353
-1155580.4087293427
-1244385.9753326436
-1319964.5204322722
-1385733.187210624
-1052327.7014913503
-1052328.3130805034
-1155578.5103857154
-1244379.604754163
-1319975.2157106572
-931710.7880837688
-931710.577004574
-1052329.0879219456
-1155581.0061328656
-1244375.1523324489
-791079.9060732757
-791079.9060732401
-931710.3133697459
-1052328.1387716106
-1155582.806016369
-650449.0240716669
-650449.2351509569
-791079.9060732088
-931710.6229721048
-1052327.4366158994
-529832.1106509092
-529831.4990615539
-650449.4987858693
-791079.9060732591
-931710.8549605886
-426577.9736600087
-426579.40343696304
-529830.7242199765
-650449.1891833649
-791079.9060732945
-337781.15317907865
-337778.2184202754
-426581.301780781
-529831.6733706594
-650448.9571947682
-262197.32415095245
-262201.7507349846
-337773.83678727533
-426578.8060327119
-529832.3755266266
-196380.0577659374
-196381.01350858583
-262211.30054991494
-337780.20736819436
-426577.0061485583
-141955.4551597139
-141901.98619788123
-196361.5990599019
-262195.29177055747
-337784.6597915424
-91149.69375589665
-91504.57295482293
-141935.12725914054
-196401.38260121073
-262184.5964881055
-57201.51940993267
-55412.86326004547
-91469.96924463108
-141838.9202308739
-196426.62485379828
-55243.950758775594
-91695.8977180876
-141782.36986969627
-54746.94650557325
-91816.59405665773
-54540.12957358229
</DataArray>
<DataArray type="Float64" Name="T_@_t=0" Format="ascii">
293.14999999999986
293.1499999999998
293.1499999999998
293.15
293.1499999999998
293.15
293.1499999999998
293.15
293.1499999999998
293.15
293.15
293.1499999999998
293.15
293.1499999999998
293.15
293.15
293.15
293.1499999999998
293.15
293.1499999999998
293.15
293.15
293.15
293.15
293.1499999999998
293.15
293.1499999999998
293.15
293.15
293.15
293.15
293.15
293.1499999999998
293.15
293.1499999999998
293.15
293.15
293.15
293.15
293.15
293.15
293.1499999999998
293.15
293.1499999999998
293.15
293.15
293.15
293.15
293.15
293.15
293.15
293.1499999999998
293.15
293.1499999999998
293.15
293.15
293.15
293.15
293.15
293.15
293.15
293.15
293.1499999999998
293.15
293.1499999999998
293.15
293.15
293.15
293.15
293.15
293.15
293.15
293.15
293.15
293.1499999999998
293.15
293.1499999999998
293.15
293.15
293.15
293.15
293.15
293.15
293.15
293.15
293.15
293.15
293.1499999999998
293.15
293.15
293.15
293.15
293.15
293.15
293.15
293.15
293.15
293.15
293.1499999999998
293.15
293.15
293.15
293.15
293.15
293.15
293.15
293.15
293.15
293.15
293.1499999999998
293.15
293.15
293.15
293.15
293.15
293.15
293.15
293.15
293.15
293.15
293.1499999999998
293.15
293.15
293.15
293.15
293.15
293.15
293.15
293.15
293.15
293.15
293.1499999999998
293.15
293.15
293.15
293.15
293.15
293.15
293.15
293.15
293.15
293.15
293.1499999999998
293.15
293.15
293.15
293.15
293.15
293.15
293.15
293.15
293.15
293.15
293.1499999999998
293.15
293.15
293.15
293.15
293.15
293.15
293.15
293.15
293.15
293.15
293.1499999999998
293.15
293.15
293.15
293.15
293.15
293.15
293.15
293.15
293.15
293.15
293.14999999999986
293.1499999999998
293.15
293.15
293.15
293.15
293.15
293.15
293.15
293.15
293.15
293.1499999999998
293.15
293.15
293.15
293.15
293.15
293.15
293.15
293.15
293.1499999999998
293.15
293.15
293.15
293.15
293.15
293.15
293.15
293.1499999999998
293.15
293.15
293.15
293.15
293.15
293.15
293.1499999999998
293.15
293.15
293.1499999999999
293.15
293.15
293.15
293.15000000000003
293.1500000000001
293.15
293.15
293.14999999999924
293.15000000000003
293.14999999999986
293.14999999999975
293.1500000000023
293.15000000000094
293.15000000000094
293.14999999999014
293.1499999999997
293.1500000000407
293.1499999999998
293.15
293.15
293.1499999999998
293.15
293.15
293.15
293.1499999999998
293.15
293.15
293.15
293.15
293.14999999999986
293.1499999999998
293.15
293.15
293.15
293.1499999999998
293.15
293.15
293.15
293.1499999999998
293.15
293.15
293.15
293.1499999999998
293.15
293.15
293.15
293.1499999999998
293.15
293.15
293.15000000000003
293.1499999999998
293.15
293.15
293.15000000000003
293.1499999999998
293.15
293.1499999999999
293.15000000000003
293.1499999999998
293.15
293.1499999999999
293.15000000000015
293.1499999999998
293.15
293.1499999999999
293.15000000000026
293.1499999999998
293.15
293.14999999999986
293.15000000000026
293.1499999999998
293.15
293.1499999999998
293.1500000000003
293.1499999999998
293.15000000000026
293.1499999999998
293.1500000000004
293.14999999999986
293.14999999999924
293.1499999999997
293.15000000000055
293.14999999999986
293.1500000000037
293.1499999999998
293.15000000000094
293.14999999999986
293.1499999999909
293.1499999999984
293.15000000000094
293.15
293.1500000001692
293.15000000000083
293.1500000000052
293.15
293.1499999999725
293.1499999999994
293.1500000000004
293.1500000001697
293.1499999999999
293.15000000001646
293.14999999999986
293.1499999999998
293.1499999999998
293.15
293.1499999999998
293.15
293.1499999999998
293.15
293.1499999999998
293.15
293.15
293.1499999999998
293.15
293.1499999999998
293.15
293.15
293.15
293.1499999999998
293.15
293.1499999999998
293.15
293.15
293.15
293.15
293.1499999999998
293.15
293.1499999999998
293.15
293.15
293.15
293.15
293.15
293.15
293.15
293.1499999999998
293.15
293.15
293.15
293.15
293.15
293.15
293.14999999999924
293.15000000000003
293.1499999999998
293.15
293.15
293.15
293.15
293.15
293.15
293.15
293.1500000000023
293.15000000000003
293.1499999999998
293.15
293.15
293.15
293.15
293.15
293.15
293.15
293.1500000000001
293.1499999999902
293.15000000000094
293.1499999999998
293.15
293.15
293.15
293.15
293.15
293.15
293.15
293.1499999999999
293.14999999999986
293.1500000000406
293.1499999999997
293.1499999999998
293.15
293.15
293.15
293.15
293.15
293.15
293.15
293.15
293.15
293.15000000000094
293.1499999999998
293.15
293.15
293.15
293.15
293.15
293.15
293.15
293.15
293.15
293.14999999999975
293.1499999999998
293.15
293.15
293.15
293.15
293.15
293.15
293.15
293.15
293.15
293.15
293.1499999999998
293.15
293.15
293.15
293.15
293.15
293.15
293.15
293.15
293.15
293.15
293.1499999999998
293.15
293.15
293.15
293.15
293.15
293.15
293.15
293.15
293.15
293.15
293.1499999999998
293.15
293.15
293.15
293.15
293.15
293.15
293.15
293.15
293.15
293.15
293.1499999999998
293.15
293.15
293.15
293.15
293.15
293.15
293.15
293.15
293.15
293.15
293.1499999999998
293.15
293.15
293.15
293.15
293.15
293.15
293.15
293.15
293.15
293.15
293.1499999999998
293.15
293.15
293.15
293.15
293.15
293.15
293.15
293.15
293.15
293.15
293.14999999999986
293.1499999999998
293.15
293.15
293.15
293.15
293.15
293.15
293.15
293.15
293.15
293.1499999999998
293.15
293.15
293.15
293.15
293.15
293.15
293.15
293.15
293.1499999999998
293.15
293.15
293.15
293.15
293.15
293.15
293.15
293.1499999999998
293.15
293.15
293.15
293.15
293.15
293.15
293.1499999999998
293.15
293.15
293.15
293.15
293.15
293.1499999999998
293.15
293.15
293.15
293.15
293.1499999999998
293.15
293.15
293.15
293.1499999999998
293.15
293.15
293.1499999999998
293.15
293.1499999999998
293.1500000001694
293.1499999999909
293.1500000000037
293.14999999997247
293.15000000000083
293.14999999999924
293.1499999999984
293.1500000001697
293.1499999999994
293.15000000000026
293.1499999999998
293.1500000000052
293.15000000001646
293.1499999999999
293.15
293.1499999999997
293.15000000000094
293.1500000000004
293.15
293.1499999999998
293.15000000000094
293.15
293.15
293.1499999999998
293.15000000000055
293.15
293.15
293.14999999999986
293.1500000000004
293.14999999999986
293.15
293.1499999999999
293.1500000000003
293.14999999999986
293.15
293.1499999999999
293.15000000000026
293.14999999999986
293.15
293.1499999999999
293.15000000000026
293.1499999999998
293.15
293.15
293.15000000000015
293.1499999999998
293.15
293.15
293.15000000000003
293.1499999999998
293.15
293.15
293.15000000000003
293.1499999999998
293.15
293.15
293.15000000000003
293.1499999999998
293.15
293.15
293.15
293.1499999999998
293.15
293.15
293.15
293.1499999999998
293.15
293.15
293.15
293.1499999999998
293.15
293.15
293.15
293.1499999999998
293.1499999999998
293.15
293.15
293.1499999999998
293.1499999999998
293.15
293.1499999999998
293.1499999999998
293.1499999999998
293.14999999999986
293.1500000000693
293.15000000039294
293.15000000005296
293.1500000002972
293.1499999998169
293.1500000000608
293.1500000003362
293.14999999985554
293.1500000004053
293.1500000000571
293.1500000003172
293.1499999998344
293.1500000002981
293.15000000004096
293.1500000000588
293.1500000003262
293.1499999998444
293.15000000034456
293.1500000000315
293.150000000058
293.150000000322
293.1499999998397
293.150000000323
293.1500000000359
293.15000000005836
293.15000000032387
293.1499999998419
293.15000000033285
293.1500000000338
293.15000000005824
293.150000000323
293.1499999998409
293.15000000032836
293.1500000000347
293.1500000000583
293.1500000003235
293.14999999984127
293.15000000033046
293.15000000003437
293.15000000005824
293.15000000032325
293.1499999998411
293.15000000032956
293.15000000003454
293.1500000000583
293.1500000003235
293.1499999998412
293.15000000033
293.1500000000344
293.15000000005824
293.150000000323
293.1499999998411
293.1500000003296
293.1500000000345
293.15000000005836
293.15000000032387
293.14999999984127
293.15000000033
293.1500000000345
293.150000000058
293.150000000322
293.1499999998409
293.15000000032956
293.1500000000345
293.1500000000588
293.1500000003262
293.1499999998419
293.15000000033046
293.1500000000344
293.1500000000571
293.1500000003172
293.1499999998397
293.15000000032836
293.15000000003454
293.1500000000608
293.1500000003361
293.1499999998444
293.15000000033285
293.15000000003437
293.15000000005296
293.1500000002972
293.1499999998344
293.150000000323
293.1500000000347
293.1500000000693
293.15000000039294
293.14999999985554
293.15000000034456
293.1500000000338
293.1499999998169
293.150000000298
293.1500000000359
293.1500000004054
293.1500000000315
293.15000000004096
</DataArray>
<DataArray type="Float64" Name="p_@_t=0.0036" Format="ascii">
-6328299.85219784
-6323165.375425951
-6317394.292536345
-6316294.438381299
-6310089.375012568
-6308990.705457613
-6315602.632470746
-6315740.823335956
-6302756.173515814
-6302029.818255
-6306682.08840314
-6313881.967590258
-6316714.340813816
-6295454.522772374
-6294798.015579157
-6300273.501232152
-6306767.835885914
-6315064.613804107
-6316593.011502702
-6288672.398624367
-6288093.731074157
-6292797.172629365
-6300439.497446633
-6307153.501335068
-6318181.471856454
-6316375.87437172
-6282368.6244542375
-6281814.51769583
-6286246.150984137
-6292918.72504169
-6300758.091348606
-6307955.282776627
-6322218.562760493
-6316101.3338006735
-6276582.282595183
-6276021.120940883
-6279871.442877139
-6286290.239389252
-6293498.767777956
-6301131.198347079
-6308767.646056262
-6326667.956687943
-6315640.521884557
-6271193.956406416
-6270592.093820731
-6274000.246398811
-6279888.64890457
-6286793.8568641795
-6294133.070066442
-6301354.017388933
-6309393.452677057
-6330991.8482763
-6314872.904457134
-6266030.325902362
-6265392.771347079
-6268431.962478608
-6274037.812531404
-6280542.728437236
-6287293.830132826
-6294544.959081607
-6301463.565094218
-6309878.005935305
-6334389.670331714
-6314071.107427258
-6261017.769941568
-6260453.182591952
-6263262.1526801
-6268695.970481736
-6274684.91131207
-6281123.62414519
-6287573.583498733
-6294805.008529819
-6301515.833686998
-6310256.199068044
-6336128.283966893
-6313635.157839005
-6256317.740739846
-6256095.783854272
-6258597.309840295
-6263847.05050986
-6269440.5260386495
-6275217.255584775
-6281433.814224753
-6287727.880219529
-6294986.139064785
-6301559.357761043
-6310478.686868259
-6252144.735310026
-6252804.0388881825
-6254533.885039828
-6259193.165427029
-6264701.857691148
-6269982.140161937
-6275477.377606898
-6281607.974768887
-6287828.930942627
-6295111.721205097
-6301616.696521884
-6248652.074775237
-6250663.246521372
-6251261.01295494
-6254283.489723506
-6260383.317111422
-6265216.319461983
-6270233.414913397
-6275615.081552296
-6281722.51945556
-6287907.400534018
-6295189.072883356
-6246059.443619668
-6249293.528582442
-6248666.515904845
-6249592.197009178
-6256366.14058508
-6260943.214196885
-6265444.853416348
-6270363.925573454
-6275701.824371182
-6281803.191583823
-6287969.799657297
-6244679.106871951
-6248389.017735791
-6246583.133863036
-6246380.489276888
-6251322.616740798
-6257138.753217416
-6261203.108540549
-6265572.799862777
-6270443.630992942
-6275763.870598563
-6281858.880776045
-6244650.018111865
-6247905.622965934
-6245149.134609325
-6243996.378478796
-6246422.422664165
-6253293.10678163
-6257494.142120551
-6261348.1506024115
-6265645.278482384
-6270494.715668564
-6275809.671517697
-6245907.429128094
-6247969.042647683
-6244383.975120911
-6242155.491000407
-6242593.314893694
-6248086.426307595
-6253938.531900663
-6257764.577340551
-6261455.266184457
-6265689.258791201
-6270529.63864884
-6248442.121971521
-6248418.6349509405
-6244433.776417114
-6240824.157243485
-6239156.5746155325
-6242410.815517132
-6250425.087399022
-6254261.872153093
-6257925.04864258
-6261521.4661425
-6265717.918775426
-6252918.079279597
-6249480.554830821
-6245228.46713367
-6240679.830618635
-6236165.698470441
-6237534.548295447
-6243918.474609524
-6251360.137436598
-6254645.4825044675
-6258049.516341343
-6261559.102548743
-6258047.944488926
-6251505.128450365
-6247384.6034696475
-6241838.0324917175
-6235231.393896458
-6232309.092242153
-6237375.439604919
-6246274.1192805655
-6251809.852091105
-6254917.915370964
-6258131.904576426
-6250827.617050156
-6244525.366320864
-6237427.548618478
-6229224.147762551
-6228951.145620798
-6239159.639850523
-6247823.429829694
-6252324.336058178
-6255085.397420826
-6248090.251609381
-6242070.544698784
-6231663.231097519
-6223321.676571218
-6227161.242938736
-6241660.260767908
-6248734.106966249
-6252716.712183864
-6245023.29767863
-6241416.513641737
-6224136.727338077
-6217544.094301925
-6229016.801862044
-6243722.0128728235
-6249321.862919583
-6242345.148341144
-6243685.5260765655
-6214710.23466099
-6210845.586948142
-6233455.785305333
-6245062.40631452
-6241038.635572588
-6252306.505322201
-6206834.9979782505
-6209242.293283782
-6235703.214246536
-6249448.492898679
-6253281.871148327
-6195205.949296537
-6217719.677065586
-6297549.02632966
-6252097.53693763
-6171515.401222841
-6323615.1994159985
-6260391.986371412
-6283487.362247196
-6336792.890242502
-6313358.446583024
-6310581.980009128
-6337051.981575875
-6313271.190767573
-6301639.745553814
-6310635.593543483
-6337195.536267169
-6313172.383515604
-6295214.44772687
-6301673.95377346
-6310691.207493929
-6337319.739057744
-6313127.2993943
-6287995.93720822
-6295233.200358608
-6301712.0258678775
-6310733.729322788
-6281878.488176185
-6288022.165846345
-6295249.6279516285
-6301747.9912853
-6275825.603504643
-6281896.134964577
-6288050.960116049
-6295265.073958696
-6270538.509050575
-6275842.373277895
-6281913.513688589
-6288077.068416239
-6265721.822093963
-6270549.218390265
-6275859.480459667
-6281929.914350227
-6261567.826028203
-6265728.794086135
-6270558.911767335
-6275875.960538088
-6258161.078943024
-6261575.996970428
-6265733.064301814
-6270569.838246128
-6255180.689858122
-6258184.348558102
-6261582.138592138
-6265738.649128502
-6252906.098802779
-6255227.95776194
-6258203.975561869
-6261591.613517657
-6249828.064538061
-6253086.60019637
-6255281.282025443
-6258209.621315806
-6245571.4584149895
-6249971.821566038
-6253298.165052812
-6255345.501714085
-6237903.388670186
-6246420.2418602165
-6250144.203290628
-6253365.649248337
-6220853.674574526
-6237913.612942193
-6247488.146519156
-6250500.007957666
-6177480.662761238
-6224727.742886862
-6238000.378230372
-6247656.287010509
-6240349.463226745
-6183699.163083251
-6229954.967941341
-6239258.774124322
-6261067.25993666
-6236097.586697925
-6187476.209203243
-6231129.041594757
-6213675.054183828
-6242646.341833894
-6191246.91517641
-6201279.355791255
-6248361.137559029
-6200293.8507301025
-76244.66298323766
-82624.06869312009
-81236.04946336096
-84820.10642359532
-85637.17034105033
-85953.88173244358
-83830.02088653388
-87760.85017779039
-88281.39862967885
-86364.34213903727
-90083.41075364497
-87976.38954796875
-93036.8085232067
-89705.59905208203
-86399.50427624793
-90708.13371855144
-95869.22858199687
-93906.13923769137
-100732.78549200586
-89822.6648976557
-86025.03803687745
-90645.39338989068
-95760.47392127843
-104230.70484816938
-101941.23919774804
-111244.24151850429
-88594.43720275052
-85365.87095092202
-89888.91595512035
-95009.21158660814
-102123.51298588436
-113609.53767707589
-111776.339111682
-125241.93086209196
-86215.02975767218
-84251.54061540787
-88561.3878696349
-93324.16280435422
-100046.5485691151
-107200.29846323412
-123063.24345872187
-122663.19753671614
-142436.6223917913
-82981.7440092546
-82338.55340188877
-86506.72154639586
-91564.43437262211
-96299.25888110966
-103256.24729842578
-111046.51453590207
-130574.50022739169
-145330.97367444236
-158867.68295691552
-79063.89880441154
-79265.86843286251
-84025.42052158025
-89076.242521618
-93162.91304221144
-97118.62479886338
-105742.86294857124
-111573.8317999141
-139732.96466148715
-239873.97327253365
-164219.70711348107
-74581.49175207845
-75136.6260039939
-80867.79247839085
-86104.36342279227
-88707.91200499232