<?xml version="1.0" encoding="UTF-8"?>
<VTKFile type="UnstructuredGrid" version="0.1" byte_order="LittleEndian">
<UnstructuredGrid>
<Piece NumberOfPoints="725" NumberOfCells="1280">
<PointData>
<DataArray type="Float64" Name="p_@_t=0" Format="ascii">
</DataArray>
<DataArray type="Float64" Name="T_@_t=0" Format="ascii">
</DataArray>
<DataArray type="Float64" Name="p_@_t=0.0036" Format="ascii">
</DataArray>
<DataArray type="Float64" Name="T_@_t=0.0036" Format="ascii">
</DataArray>
<DataArray type="Float64" Name="p_@_t=0.0072" Format="ascii">
</DataArray>
<DataArray type="Float64" Name="T_@_t=0.0072" Format="ascii">
</DataArray>
<DataArray type="Float64" Name="p_@_t=0.0108" Format="ascii">
</DataArray>
<DataArray type="Float64" Name="T_@_t=0.0108" Format="ascii">
</DataArray>
<DataArray type="Float64" Name="p_@_t=0.0144" Format="ascii">
</DataArray>
<DataArray type="Float64" Name="T_@_t=0.0144" Format="ascii">
</DataArray>
<DataArray type="Float64" Name="p_@_t=0.018" Format="ascii">
</DataArray>
<DataArray type="Float64" Name="T_@_t=0.018" Format="ascii">
</DataArray>
<DataArray type="Float64" Name="p_@_t=0.0216" Format="ascii">
</DataArray>
<DataArray type="Float64" Name="T_@_t=0.0216" Format="ascii">
</DataArray>
<DataArray type="Float64" Name="p_@_t=0.0252" Format="ascii">
</DataArray>
<DataArray type="Float64" Name="T_@_t=0.0252" Format="ascii">
</DataArray>
<DataArray type="Float64" Name="p_@_t=0.0288" Format="ascii">
</DataArray>
<DataArray type="Float64" Name="T_@_t=0.0288" Format="ascii">
</DataArray>
<DataArray type="Float64" Name="p_@_t=0.0324" Format="ascii">
</DataArray>
<DataArray type="Float64" Name="T_@_t=0.0324" Format="ascii">
</DataArray>
<DataArray type="Float64" Name="p_@_t=0.036" Format="ascii">
</DataArray>
<DataArray type="Float64" Name="T_@_t=0.036" Format="ascii">
</DataArray>
<DataArray type="Float64" Name="p_@_t=0.0396" Format="ascii">
</DataArray>
<DataArray type="Float64" Name="T_@_t=0.0396" Format="ascii">
</DataArray>
<DataArray type="Float64" Name="p_@_t=0.0432" Format="ascii">
</DataArray>
<DataArray type="Float64" Name="T_@_t=0.0432" Format="ascii">
</DataArray>
<DataArray type="Float64" Name="p_@_t=0.0468" Format="ascii">
</DataArray>
<DataArray type="Float64" Name="T_@_t=0.0468" Format="ascii">
</DataArray>
<DataArray type="Float64" Name="p_@_t=0.0504" Format="ascii">
</DataArray>
<DataArray type="Float64" Name="T_@_t=0.0504" Format="ascii">
</DataArray>
<DataArray type="Float64" Name="p_@_t=0.054" Format="ascii">
</DataArray>
<DataArray type="Float64" Name="T_@_t=0.054" Format="ascii">
</DataArray>
<DataArray type="Float64" Name="p_@_t=0.0576" Format="ascii">
</DataArray>
<DataArray type="Float64" Name="T_@_t=0.0576" Format="ascii">
</DataArray>
<DataArray type="Float64" Name="p_@_t=0.0612" Format="ascii">
</DataArray>
<DataArray type="Float64" Name="T_@_t=0.0612" Format="ascii">
</DataArray>
<DataArray type="Float64" Name="p_@_t=0.0648" Format="ascii">
</DataArray>
<DataArray type="Float64" Name="T_@_t=0.0648" Format="ascii">
</DataArray>
<DataArray type="Float64" Name="p_@_t=0.0684" Format="ascii">
</DataArray>
<DataArray type="Float64" Name="T_@_t=0.0684" Format="ascii">
</DataArray>
<DataArray type="Float64" Name="p_@_t=0.072" Format="ascii">
</DataArray>
<DataArray type="Float64" Name="T_@_t=0.072" Format="ascii">
</DataArray>
<DataArray type="Float64" Name="p_@_t=0.0756" Format="ascii">
</DataArray>
<DataArray type="Float64" Name="T_@_t=0.0756" Format="ascii">
</DataArray>
<DataArray type="Float64" Name="p_@_t=0.0792" Format="ascii">
</DataArray>
<DataArray type="Float64" Name="T_@_t=0.0792" Format="ascii">
</DataArray>
<DataArray type="Float64" Name="p_@_t=0.0828" Format="ascii">
</DataArray>
<DataArray type="Float64" Name="T_@_t=0.0828" Format="ascii">
</DataArray>
<DataArray type="Float64" Name="p_@_t=0.0864" Format="ascii">
</DataArray>
<DataArray type="Float64" Name="T_@_t=0.0864" Format="ascii">
</DataArray>
<DataArray type="Float64" Name="p_@_t=0.09" Format="ascii">
</DataArray>
<DataArray type="Float64" Name="T_@_t=0.09" Format="ascii">
</DataArray>
<DataArray type="Float64" Name="p_@_t=0.0936" Format="ascii">
</DataArray>
<DataArray type="Float64" Name="T_@_t=0.0936" Format="ascii">
</DataArray>
<DataArray type="Float64" Name="p_@_t=0.0972" Format="ascii">
</DataArray>
<DataArray type="Float64" Name="T_@_t=0.0972" Format="ascii">
</DataArray>
<DataArray type="Float64" Name="p_@_t=0.1008" Format="ascii">
</DataArray>
<DataArray type="Float64" Name="T_@_t=0.1008" Format="ascii">
</DataArray>
<DataArray type="Float64" Name="p_@_t=0.1044" Format="ascii">
</DataArray>
<DataArray type="Float64" Name="T_@_t=0.1044" Format="ascii">
</DataArray>
<DataArray type="Float64" Name="p_@_t=0.108" Format="ascii">
</DataArray>
<DataArray type="Float64" Name="T_@_t=0.108" Format="ascii">
</DataArray>
<DataArray type="Float64" Name="p_@_t=0.1116" Format="ascii">
</DataArray>
<DataArray type="Float64" Name="T_@_t=0.1116" Format="ascii">
</DataArray>
<DataArray type="Float64" Name="p_@_t=0.1152" Format="ascii">
</DataArray>
<DataArray type="Float64" Name="T_@_t=0.1152" Format="ascii">
</DataArray>
<DataArray type="Float64" Name="p_@_t=0.1188" Format="ascii">
</DataArray>
<DataArray type="Float64" Name="T_@_t=0.1188" Format="ascii">
</DataArray>
<DataArray type="Float64" Name="p_@_t=0.1224" Format="ascii">
</DataArray>
<DataArray type="Float64" Name="T_@_t=0.1224" Format="ascii">
</DataArray>
<DataArray type="Float64" Name="p_@_t=0.126" Format="ascii">
</DataArray>
<DataArray type="Float64" Name="T_@_t=0.126" Format="ascii">
</DataArray>
<DataArray type="Float64" Name="p_@_t=0.1296" Format="ascii">
</DataArray>
<DataArray type="Float64" Name="T_@_t=0.1296" Format="ascii">
</DataArray>
<DataArray type="Float64" Name="p_@_t=0.1332" Format="ascii">
</DataArray>
<DataArray type="Float64" Name="T_@_t=0.1332" Format="ascii">
</DataArray>
<DataArray type="Float64" Name="p_@_t=0.1368" Format="ascii">
</DataArray>
<DataArray type="Float64" Name="T_@_t=0.1368" Format="ascii">
</DataArray>
<DataArray type="Float64" Name="p_@_t=0.1404" Format="ascii">
</DataArray>
<DataArray type="Float64" Name="T_@_t=0.1404" Format="ascii">
</DataArray>
<DataArray type="Float64" Name="p_@_t=0.144" Format="ascii">
</DataArray>
<DataArray type="Float64" Name="T_@_t=0.144" Format="ascii">
</DataArray>
<DataArray type="Float64" Name="p_@_t=0.1476" Format="ascii">
</DataArray>
<DataArray type="Float64" Name="T_@_t=0.1476" Format="ascii">
</DataArray>
<DataArray type="Float64" Name="p_@_t=0.1512" Format="ascii">
</DataArray>
<DataArray type="Float64" Name="T_@_t=0.1512" Format="ascii">
</DataArray>
<DataArray type="Float64" Name="p_@_t=0.1548" Format="ascii">
</DataArray>
<DataArray type="Float64" Name="T_@_t=0.1548" Format="ascii">
</DataArray>
<DataArray type="Float64" Name="p_@_t=0.1584" Format="ascii">
</DataArray>
<DataArray type="Float64" Name="T_@_t=0.1584" Format="ascii">
</DataArray>
<DataArray type="Float64" Name="p_@_t=0.162" Format="ascii">
</DataArray>
<DataArray type="Float64" Name="T_@_t=0.162" Format="ascii">
</DataArray>
<DataArray type="Float64" Name="p_@_t=0.1656" Format="ascii">
</DataArray>
<DataArray type="Float64" Name="T_@_t=0.1656" Format="ascii">
</DataArray>
<DataArray type="Float64" Name="p_@_t=0.1692" Format="ascii">
</DataArray>
<DataArray type="Float64" Name="T_@_t=0.1692" Format="ascii">
</DataArray>
<DataArray type="Float64" Name="p_@_t=0.1728" Format="ascii">
</DataArray>
<DataArray type="Float64" Name="T_@_t=0.1728" Format="ascii">
</DataArray>
<DataArray type="Float64" Name="p_@_t=0.1764" Format="ascii">
</DataArray>
<DataArray type="Float64" Name="T_@_t=0.1764" Format="ascii">
</DataArray>
<DataArray type="Float64" Name="p_@_t=0.18" Format="ascii">
</DataArray>
<DataArray type="Float64" Name="T_@_t=0.18" Format="ascii">
</DataArray>
<DataArray type="Float64" Name="p_@_t=0.1836" Format="ascii">
</DataArray>
<DataArray type="Float64" Name="T_@_t=0.1836" Format="ascii">
</DataArray>
<DataArray type="Float64" Name="p_@_t=0.1872" Format="ascii">
</DataArray>
<DataArray type="Float64" Name="T_@_t=0.1872" Format="ascii">
</DataArray>
<DataArray type="Float64" Name="p_@_t=0.1908" Format="ascii">
</DataArray>
<DataArray type="Float64" Name="T_@_t=0.1908" Format="ascii">
</DataArray>
<DataArray type="Float64" Name="p_@_t=0.1944" Format="ascii">
</DataArray>
<DataArray type="Float64" Name="T_@_t=0.1944" Format="ascii">
</DataArray>
<DataArray type="Float64" Name="p_@_t=0.198" Format="ascii">
</DataArray>
<DataArray type="Float64" Name="T_@_t=0.198" Format="ascii">
</DataArray>
<DataArray type="Float64" Name="p_@_t=0.2016" Format="ascii">
</DataArray>
<DataArray type="Float64" Name="T_@_t=0.2016" Format="ascii">
</DataArray>
<DataArray type="Float64" Name="p_@_t=0.2052" Format="ascii">
</DataArray>
<DataArray type="Float64" Name="T_@_t=0.2052" Format="ascii">
</DataArray>
<DataArray type="Float64" Name="p_@_t=0.2088" Format="ascii">
</DataArray>
<DataArray type="Float64" Name="T_@_t=0.2088" Format="ascii">
</DataArray>
<DataArray type="Float64" Name="p_@_t=0.2124" Format="ascii">
</DataArray>
<DataArray type="Float64" Name="T_@_t=0.2124" Format="ascii">
</DataArray>
<DataArray type="Float64" Name="p_@_t=0.216" Format="ascii">
</DataArray>
<DataArray type="Float64" Name="T_@_t=0.216" Format="ascii">
</DataArray>
<DataArray type="Float64" Name="p_@_t=0.2196" Format="ascii">
</DataArray>
<DataArray type="Float64" Name="T_@_t=0.2196" Format="ascii">
</DataArray>
<DataArray type="Float64" Name="p_@_t=0.2232" Format="ascii">
</DataArray>
<DataArray type="Float64" Name="T_@_t=0.2232" Format="ascii">
</DataArray>
<DataArray type="Float64" Name="p_@_t=0.2268" Format="ascii">
</DataArray>
<DataArray type="Float64" Name="T_@_t=0.2268" Format="ascii">
</DataArray>
<DataArray type="Float64" Name="p_@_t=0.2304" Format="ascii">
</DataArray>
<DataArray type="Float64" Name="T_@_t=0.2304" Format="ascii">
</DataArray>
<DataArray type="Float64" Name="p_@_t=0.234" Format="ascii">
</DataArray>
<DataArray type="Float64" Name="T_@_t=0.234" Format="ascii">
</DataArray>
<DataArray type="Float64" Name="p_@_t=0.2376" Format="ascii">
</DataArray>
<DataArray type="Float64" Name="T_@_t=0.2376" Format="ascii">
</DataArray>
<DataArray type="Float64" Name="p_@_t=0.2412" Format="ascii">
</DataArray>
<DataArray type="Float64" Name="T_@_t=0.2412" Format="ascii">
</DataArray>
<DataArray type="Float64" Name="p_@_t=0.2448" Format="ascii">
</DataArray>
<DataArray type="Float64" Name="T_@_t=0.2448" Format="ascii">
</DataArray>
<DataArray type="Float64" Name="p_@_t=0.2484" Format="ascii">
</DataArray>
<DataArray type="Float64" Name="T_@_t=0.2484" Format="ascii">
</DataArray>
<DataArray type="Float64" Name="p_@_t=0.252" Format="ascii">
</DataArray>
<DataArray type="Float64" Name="T_@_t=0.252" Format="ascii">
</DataArray>
<DataArray type="Float64" Name="p_@_t=0.2556" Format="ascii">
</DataArray>
<DataArray type="Float64" Name="T_@_t=0.2556" Format="ascii">
</DataArray>
<DataArray type="Float64" Name="p_@_t=0.2592" Format="ascii">
</DataArray>
<DataArray type="Float64" Name="T_@_t=0.2592" Format="ascii">
</DataArray>
<DataArray type="Float64" Name="p_@_t=0.2628" Format="ascii">
</DataArray>
<DataArray type="Float64" Name="T_@_t=0.2628" Format="ascii">
</DataArray>
<DataArray type="Float64" Name="p_@_t=0.2664" Format="ascii">
</DataArray>
<DataArray type="Float64" Name="T_@_t=0.2664" Format="ascii">
</DataArray>
<DataArray type="Float64" Name="p_@_t=0.27" Format="ascii">
</DataArray>
<DataArray type="Float64" Name="T_@_t=0.27" Format="ascii">
</DataArray>
<DataArray type="Float64" Name="p_@_t=0.2736" Format="ascii">
</DataArray>
<DataArray type="Float64" Name="T_@_t=0.2736" Format="ascii">
</DataArray>
<DataArray type="Float64" Name="p_@_t=0.2772" Format="ascii">
</DataArray>
<DataArray type="Float64" Name="T_@_t=0.2772" Format="ascii">
</DataArray>
<DataArray type="Float64" Name="p_@_t=0.2808" Format="ascii">
</DataArray>
<DataArray type="Float64" Name="T_@_t=0.2808" Format="ascii">
</DataArray>
<DataArray type="Float64" Name="p_@_t=0.2844" Format="ascii">
</DataArray>
<DataArray type="Float64" Name="T_@_t=0.2844" Format="ascii">
</DataArray>
<DataArray type="Float64" Name="p_@_t=0.288" Format="ascii">
</DataArray>
<DataArray type="Float64" Name="T_@_t=0.288" Format="ascii">
</DataArray>
<DataArray type="Float64" Name="p_@_t=0.2916" Format="ascii">
</DataArray>
<DataArray type="Float64" Name="T_@_t=0.2916" Format="ascii">
</DataArray>
<DataArray type="Float64" Name="p_@_t=0.2952" Format="ascii">
</DataArray>
<DataArray type="Float64" Name="T_@_t=0.2952" Format="ascii">
</DataArray>
<DataArray type="Float64" Name="p_@_t=0.2988" Format="ascii">
</DataArray>
<DataArray type="Float64" Name="T_@_t=0.2988" Format="ascii">
</DataArray>
<DataArray type="Float64" Name="p_@_t=0.3024" Format="ascii">
</DataArray>
<DataArray type="Float64" Name="T_@_t=0.3024" Format="ascii">
</DataArray>
<DataArray type="Float64" Name="p_@_t=0.306" Format="ascii">
</DataArray>
<DataArray type="Float64" Name="T_@_t=0.306" Format="ascii">
</DataArray>
<DataArray type="Float64" Name="p_@_t=0.3096" Format="ascii">
</DataArray>
<DataArray type="Float64" Name="T_@_t=0.3096" Format="ascii">
</DataArray>
<DataArray type="Float64" Name="p_@_t=0.3132" Format="ascii">
</DataArray>
<DataArray type="Float64" Name="T_@_t=0.3132" Format="ascii">
</DataArray>
<DataArray type="Float64" Name="p_@_t=0.3168" Format="ascii">
</DataArray>
<DataArray type="Float64" Name="T_@_t=0.3168" Format="ascii">
</DataArray>
<DataArray type="Float64" Name="p_@_t=0.3204" Format="ascii">
</DataArray>
<DataArray type="Float64" Name="T_@_t=0.3204" Format="ascii">
</DataArray>
<DataArray type="Float64" Name="p_@_t=0.324" Format="ascii">
</DataArray>
<DataArray type="Float64" Name="T_@_t=0.324" Format="ascii">
</DataArray>
<DataArray type="Float64" Name="p_@_t=0.3276" Format="ascii">
</DataArray>
<DataArray type="Float64" Name="T_@_t=0.3276" Format="ascii">
</DataArray>
<DataArray type="Float64" Name="p_@_t=0.3312" Format="ascii">
</DataArray>
<DataArray type="Float64" Name="T_@_t=0.3312" Format="ascii">
</DataArray>
<DataArray type="Float64" Name="p_@_t=0.3348" Format="ascii">
</DataArray>
<DataArray type="Float64" Name="T_@_t=0.3348" Format="ascii">
</DataArray>
<DataArray type="Float64" Name="p_@_t=0.3384" Format="ascii">
</DataArray>
<DataArray type="Float64" Name="T_@_t=0.3384" Format="ascii">
</DataArray>
<DataArray type="Float64" Name="p_@_t=0.342" Format="ascii">
</DataArray>
<DataArray type="Float64" Name="T_@_t=0.342" Format="ascii">
</DataArray>
<DataArray type="Float64" Name="p_@_t=0.3456" Format="ascii">
</DataArray>
<DataArray type="Float64" Name="T_@_t=0.3456" Format="ascii">
</DataArray>
<DataArray type="Float64" Name="p_@_t=0.3492" Format="ascii">
</DataArray>
<DataArray type="Float64" Name="T_@_t=0.3492" Format="ascii">
</DataArray>
<DataArray type="Float64" Name="p_@_t=0.3528" Format="ascii">
</DataArray>
<DataArray type="Float64" Name="T_@_t=0.3528" Format="ascii">
</DataArray>
<DataArray type="Float64" Name="p_@_t=0.3564" Format="ascii">
</DataArray>
<DataArray type="Float64" Name="T_@_t=0.3564" Format="ascii">
</DataArray>
<DataArray type="Float64" Name="p_@_t=0.36" Format="ascii">
</DataArray>
<DataArray type="Float64" Name="T_@_t=0.36" Format="ascii">
</DataArray>
<DataArray type="Float64" Name="p_@_t=0.3636" Format="ascii">
</DataArray>
<DataArray type="Float64" Name="T_@_t=0.3636" Format="ascii">
</DataArray>
<DataArray type="Float64" Name="p_@_t=0.3672" Format="ascii">
</DataArray>
<DataArray type="Float64" Name="T_@_t=0.3672" Format="ascii">
</DataArray>
<DataArray type="Float64" Name="p_@_t=0.3708" Format="ascii">
</DataArray>
<DataArray type="Float64" Name="T_@_t=0.3708" Format="ascii">
</DataArray>
<DataArray type="Float64" Name="p_@_t=0.3744" Format="ascii">
</DataArray>
<DataArray type="Float64" Name="T_@_t=0.3744" Format="ascii">
</DataArray>
<DataArray type="Float64" Name="p_@_t=0.378" Format="ascii">
</DataArray>
<DataArray type="Float64" Name="T_@_t=0.378" Format="ascii">
</DataArray>
<DataArray type="Float64" Name="p_@_t=0.3816" Format="ascii">
</DataArray>
<DataArray type="Float64" Name="T_@_t=0.3816" Format="ascii">
</DataArray>
<DataArray type="Float64" Name="p_@_t=0.3852" Format="ascii">
</DataArray>
<DataArray type="Float64" Name="T_@_t=0.3852" Format="ascii">
</DataArray>
<DataArray type="Float64" Name="p_@_t=0.3888" Format="ascii">
</DataArray>
<DataArray type="Float64" Name="T_@_t=0.3888" Format="ascii">
</DataArray>
<DataArray type="Float64" Name="p_@_t=0.3924" Format="ascii">
</DataArray>
<DataArray type="Float64" Name="T_@_t=0.3924" Format="ascii">
</DataArray>
<DataArray type="Float64" Name="p_@_t=0.396" Format="ascii">
</DataArray>
<DataArray type="Float64" Name="T_@_t=0.396" Format="ascii">
</DataArray>
<DataArray type="Float64" Name="p_@_t=0.3996" Format="ascii">
</DataArray>
<DataArray type="Float64" Name="T_@_t=0.3996" Format="ascii">
</DataArray>
<DataArray type="Float64" Name="p_@_t=0.4032" Format="ascii">
</DataArray>
<DataArray type="Float64" Name="T_@_t=0.4032" Format="ascii">
</DataArray>
<DataArray type="Float64" Name="p_@_t=0.4068" Format="ascii">
</DataArray>
<DataArray type="Float64" Name="T_@_t=0.4068" Format="ascii">
</DataArray>
<DataArray type="Float64" Name="p_@_t=0.4104" Format="ascii">
</DataArray>
<DataArray type="Float64" Name="T_@_t=0.4104" Format="ascii">
</DataArray>
<DataArray type="Float64" Name="p_@_t=0.414" Format="ascii">
</DataArray>
<DataArray type="Float64" Name="T_@_t=0.414" Format="ascii">
</DataArray>
<DataArray type="Float64" Name="p_@_t=0.4176" Format="ascii">
</DataArray>
<DataArray type="Float64" Name="T_@_t=0.4176" Format="ascii">
</DataArray>
<DataArray type="Float64" Name="p_@_t=0.4212" Format="ascii">
</DataArray>
<DataArray type="Float64" Name="T_@_t=0.4212" Format="ascii">
</DataArray>
<DataArray type="Float64" Name="p_@_t=0.4248" Format="ascii">
</DataArray>
<DataArray type="Float64" Name="T_@_t=0.4248" Format="ascii">
</DataArray>
<DataArray type="Float64" Name="p_@_t=0.4284" Format="ascii">
</DataArray>
<DataArray type="Float64" Name="T_@_t=0.4284" Format="ascii">
</DataArray>
<DataArray type="Float64" Name="p_@_t=0.432" Format="ascii">
</DataArray>
<DataArray type="Float64" Name="T_@_t=0.432" Format="ascii">
</DataArray>
<DataArray type="Float64" Name="p_@_t=0.4356" Format="ascii">
</DataArray>
<DataArray type="Float64" Name="T_@_t=0.4356" Format="ascii">
</DataArray>
<DataArray type="Float64" Name="p_@_t=0.4392" Format="ascii">
</DataArray>
<DataArray type="Float64" Name="T_@_t=0.4392" Format="ascii">
</DataArray>
<DataArray type="Float64" Name="p_@_t=0.4428" Format="ascii">
</DataArray>
<DataArray type="Float64" Name="T_@_t=0.4428" Format="ascii">
</DataArray>
<DataArray type="Float64" Name="p_@_t=0.4464" Format="ascii">
</DataArray>
<DataArray type="Float64" Name="T_@_t=0.4464" Format="ascii">
</DataArray>
<DataArray type="Float64" Name="p_@_t=0.45" Format="ascii">
</DataArray>
<DataArray type="Float64" Name="T_@_t=0.45" Format="ascii">
</DataArray>
<DataArray type="Float64" Name="p_@_t=0.4536" Format="ascii">
</DataArray>
<DataArray type="Float64" Name="T_@_t=0.4536" Format="ascii">
</DataArray>
<DataArray type="Float64" Name="p_@_t=0.4572" Format="ascii">
</DataArray>
<DataArray type="Float64" Name="T_@_t=0.4572" Format="ascii">
</DataArray>
<DataArray type="Float64" Name="p_@_t=0.4608" Format="ascii">
</DataArray>
<DataArray type="Float64" Name="T_@_t=0.4608" Format="ascii">
</DataArray>
<DataArray type="Float64" Name="p_@_t=0.4644" Format="ascii">
</DataArray>
<DataArray type="Float64" Name="T_@_t=0.4644" Format="ascii">
</DataArray>
<DataArray type="Float64" Name="p_@_t=0.468" Format="ascii">
</DataArray>
<DataArray type="Float64" Name="T_@_t=0.468" Format="ascii">
</DataArray>
<DataArray type="Float64" Name="p_@_t=0.4716" Format="ascii">
</DataArray>
<DataArray type="Float64" Name="T_@_t=0.4716" Format="ascii">
</DataArray>
<DataArray type="Float64" Name="p_@_t=0.4752" Format="ascii">
</DataArray>
<DataArray type="Float64" Name="T_@_t=0.4752" Format="ascii">
</DataArray>
<DataArray type="Float64" Name="p_@_t=0.4788" Format="ascii">
</DataArray>
<DataArray type="Float64" Name="T_@_t=0.4788" Format="ascii">
</DataArray>
<DataArray type="Float64" Name="p_@_t=0.4824" Format="ascii">
</DataArray>
<DataArray type="Float64" Name="T_@_t=0.4824" Format="ascii">
</DataArray>
<DataArray type="Float64" Name="p_@_t=0.486" Format="ascii">
</DataArray>
<DataArray type="Float64" Name="T_@_t=0.486" Format="ascii">
</DataArray>
<DataArray type="Float64" Name="p_@_t=0.4896" Format="ascii">
</DataArray>
<DataArray type="Float64" Name="T_@_t=0.4896" Format="ascii">
</DataArray>
<DataArray type="Float64" Name="p_@_t=0.4932" Format="ascii">
</DataArray>
<DataArray type="Float64" Name="T_@_t=0.4932" Format="ascii">
</DataArray>
<DataArray type="Float64" Name="p_@_t=0.4968" Format="ascii">
</DataArray>
<DataArray type="Float64" Name="T_@_t=0.4968" Format="ascii">
</DataArray>
<DataArray type="Float64" Name="p_@_t=0.5004" Format="ascii">
</DataArray>
<DataArray type="Float64" Name="T_@_t=0.5004" Format="ascii">
</DataArray>
<DataArray type="Float64" Name="p_@_t=0.504" Format="ascii">
</DataArray>
<DataArray type="Float64" Name="T_@_t=0.504" Format="ascii">
</DataArray>
<DataArray type="Float64" Name="p_@_t=0.5076" Format="ascii">
</DataArray>
<DataArray type="Float64" Name="T_@_t=0.5076" Format="ascii">
</DataArray>
<DataArray type="Float64" Name="p_@_t=0.5112" Format="ascii">
</DataArray>
<DataArray type="Float64" Name="T_@_t=0.5112" Format="ascii">
</DataArray>
<DataArray type="Float64" Name="p_@_t=0.5148" Format="ascii">
</DataArray>
<DataArray type="Float64" Name="T_@_t=0.5148" Format="ascii">
</DataArray>
<DataArray type="Float64" Name="p_@_t=0.5184" Format="ascii">
</DataArray>
<DataArray type="Float64" Name="T_@_t=0.5184" Format="ascii">
</DataArray>
<DataArray type="Float64" Name="p_@_t=0.522" Format="ascii">
</DataArray>
<DataArray type="Float64" Name="T_@_t=0.522" Format="ascii">
</DataArray>
<DataArray type="Float64" Name="p_@_t=0.5256" Format="ascii">
</DataArray>
<DataArray type="Float64" Name="T_@_t=0.5256" Format="ascii">
</DataArray>
<DataArray type="Float64" Name="p_@_t=0.5292" Format="ascii">
</DataArray>
<DataArray type="Float64" Name="T_@_t=0.5292" Format="ascii">
</DataArray>
<DataArray type="Float64" Name="p_@_t=0.5328" Format="ascii">
</DataArray>
<DataArray type="Float64" Name="T_@_t=0.5328" Format="ascii">
</DataArray>
<DataArray type="Float64" Name="p_@_t=0.5364" Format="ascii">
</DataArray>
<DataArray type="Float64" Name="T_@_t=0.5364" Format="ascii">
</DataArray>
<DataArray type="Float64" Name="p_@_t=0.54" Format="ascii">
</DataArray>
<DataArray type="Float64" Name="T_@_t=0.54" Format="ascii">
</DataArray>
</PointData>
<CellData/>
<Points>
<DataArray type="Float64" NumberOfComponents="3" Format="ascii">
</DataArray>
</Points>
<Cells>
<DataArray type="Int32" Name="connectivity" Format="ascii">
</DataArray>
<DataArray type="Int32" Name="offsets" Format="ascii">
</DataArray>
<DataArray type="UInt8" Name="types" Format="ascii">
</DataArray>
</Cells>
</Piece>
</UnstructuredGrid>
</VTKFile>
