<?xml version="1.0" encoding="UTF-8"?>
<VTKFile type="UnstructuredGrid" version="0.1" byte_order="LittleEndian">
<UnstructuredGrid>
<Piece NumberOfPoints="725" NumberOfCells="1280">
<PointData>
<DataArray type="Float64" Name="p_@_t=0" Format="ascii">
-1944753.9891249272
-1944896.4523968012
-1944920.3013563452
-1945145.5485973104
-1945379.9082952978
-1945599.375752031
-1945075.8511250932
-1945371.0250810229
-1946074.8283114915
-1946245.2531834613
-1945827.0640533797
-1945236.1303480456
-1945545.3030662804
-1946915.1984781919
-1947011.866102859
-1946423.8124287562
-1945997.5158572
-1945360.2724785975
-1945664.9218970516
-1947830.94561386
-1947829.2280739797
-1947109.1363303943
-1946558.913092304
-1946107.1791658478
-1945450.4912060222
-1945739.3114108315
-1948771.588117742
-1948646.4008337432
-1947819.2088857985
-1947180.3531491745
-1946645.6643702623
-1946171.4362473094
-1945513.2674576899
-1945781.6381048423
-1949707.4557528126
-1949433.940928204
-1948503.6149698514
-1947804.2366781442
-1947224.9589510106
-1946696.326313745
-1946207.3055197864
-1945555.0588964014
-1945803.9646818442
-1950627.112828802
-1950183.0629611905
-1949133.073257729
-1948382.4669941587
-1947789.6024586624
-1947250.2124924152
-1946724.7702169388
-1946227.5403457112
-1945581.2537914864
-1945815.1932767138
-1951532.6251399752
-1950902.0959784703
-1949699.0276818553
-1948885.4316434136
-1948294.2307200015
-1947778.2728701355
-1947263.9789635192
-1946740.7462078598
-1946239.472646873
-1945596.161435015
-1945820.8405700005
-1952433.4108067625
-1951611.1543785103
-1950210.8620945257
-1949302.0600912701
-1948708.5147127027
-1948236.7143009338
-1947771.2035084167
-1947271.8195110976
-1946749.7959077116
-1946246.5610022577
-1945603.3061803943
-1945823.8029308033
-1953340.2963226468
-1952335.471199704
-1950691.9508004244
-1949637.2825980156
-1949017.5626456013
-1948594.1909593118
-1948202.8311904885
-1947767.8787742897
-1947276.7530423442
-1946754.9069333028
-1946250.4954283712
-1954261.4313591765
-1953098.1912521843
-1951174.6549129407
-1949909.1368636186
-1949219.5825086876
-1948832.1307947126
-1948526.4896212954
-1948184.8241411352
-1947767.0908880369
-1947280.1140192896
-1946757.7760063023
-1955200.7034236388
-1953914.4586346836
-1951694.000934535
-1950146.1153991441
-1949323.3287661998
-1948942.3313240204
-1948720.8025003544
-1948489.584695123
-1948176.4129731278
-1947767.680466419
-1947282.4500393753
-1956157.912255613
-1954788.8142215977
-1952280.157256001
-1950384.6315582402
-1949346.751942521
-1948924.301587423
-1948772.6630366964
-1948658.939134472
-1948471.2550156834
-1948173.3795725075
-1947768.8803659354
-1957129.5888801743
-1955716.0705592372
-1952951.3876183913
-1950665.5806744879
-1949317.295288592
-1948784.0063585714
-1948674.3013813605
-1948676.5796440176
-1948627.330816115
-1948463.464326764
-1948173.1932745823
-1958110.0230286443
-1956683.8741872269
-1953710.7242152668
-1951028.2351273806
-1949273.433261205
-1948534.711104804
-1948421.4516432653
-1948529.8401224592
-1948626.5136330044
-1948613.1528428353
-1948461.4165398094
-1959092.3750754544
-1957675.3116479742
-1954547.6693317646
-1951501.1744747064
-1949265.8584316594
-1948200.391383038
-1948013.265266902
-1948207.1469029016
-1948453.2621696691
-1948603.4047426179
-1948608.6314692597
-1960069.7362605003
-1958670.4033308981
-1955442.5646131248
-1952095.264765757
-1949353.981437724
-1947821.7214243002
-1947454.451951038
-1947696.5601081322
-1948091.5218536519
-1948417.2482718404
-1948595.3919407586
-1961031.9391861232
-1959648.853809438
-1956371.1708184825
-1952803.8429866252
-1949591.432565049
-1947464.3589140025
-1946761.0734149946
-1946985.6220346496
-1947522.141397088
-1948036.251503356
-1948404.2496599748
-1961970.627022233
-1960597.6791426917
-1957308.9288877198
-1953606.2644746879
-1950007.509971525
-1947223.5091134228
-1945971.5112370616
-1946062.9023782106
-1946720.523403041
-1947437.4778065272
-1948015.58885535
-1958240.2369747094
-1954473.180178283
-1950600.8504879198
-1947199.8155556207
-1945169.268329613
-1944925.3860459898
-1945654.3605770199
-1946589.3600291666
-1947405.50520424
-1955380.6147778726
-1951343.567851308
-1947451.9042341101
-1944519.4802614672
-1943593.5110258902
-1944280.630504494
-1945447.0188964491
-1946538.0235673643
-1952205.4035679544
-1947982.840351866
-1944224.1112664507
-1942167.6588255176
-1942552.1274012914
-1943943.3067452067
-1945366.608512677
-1948766.3875965856
-1944392.632067739
-1940989.4640809423
-1940417.1923271467
-1941968.8118244286
-1943803.0671365643
-1945047.165806438
-1940517.875461865
-1937969.4297731814
-1939376.4729257973
-1941735.775695121
-1940937.263259382
-1936193.5854174488
-1935781.8644857425
-1938873.0906351993
-1936155.3401168364
-1931301.5513429472
-1934836.5033507613
-1929908.4481979925
-1927589.189408813
-1918149.7021776286
-1945604.5538541297
-1945824.0969006978
-1946251.144565988
-1945605.3238894725
-1945824.6425608476
-1946758.2325615904
-1946251.7212278356
-1945605.7358822634
-1945825.1422480915
-1947282.9529894425
-1946758.7457937563
-1946252.1974757593
-1945605.7843383385
-1945825.5499758208
-1947769.3084272696
-1947283.4257486374
-1946759.218416883
-1946252.5030093386
-1948173.5783081122
-1947769.6999901263
-1947283.8933643708
-1946759.5746312058
-1948461.720042615
-1948173.8710959025
-1947770.156278749
-1947284.2514405036
-1948608.8436771783
-1948461.879656715
-1948174.3159483443
-1947770.5424097853
-1948595.4511042056
-1948608.8287767894
-1948462.3090528203
-1948174.7320170081
-1948404.1470436142
-1948595.1850608315
-1948609.2397048867
-1948462.7690297395
-1948015.0901478962
-1948403.539214338
-1948595.567263486
-1948609.7569454303
-1947404.7480910327
-1948013.899110305
-1948403.8872791424
-1948596.1687064557
-1946536.071718101
-1947402.8894040608
-1948014.1688192463
-1948404.5983739411
-1945363.93293451
-1946532.3609361453
-1947403.1120669488
-1948015.0749182277
-1943798.1950257204
-1945359.8261843112
-1946532.2649823725
-1947404.221648893
-1941718.4130369488
-1943783.73422952
-1945359.911247664
-1946533.9650157152
-1938888.605339697
-1941719.2824359776
-1943781.902379317
-1945361.8040693798
-1934565.065644382
-1938787.4727660324
-1941720.3828206297
-1943786.5008370688
-1928513.421530748
-1934731.6053097446
-1938774.6367602982
-1941722.6067529968
-1906996.9298248063
-1927347.8168888811
-1934739.6643916322
-1938798.5132927077
-1906734.821472238
-1927273.1791016522
-1934716.2918667803
-1906081.610496346
-1927539.076993973
-1906501.6551709163
16367.027256891544
14994.07938209407
15428.339420042277
14045.254048731535
14466.136493061958
13066.803569759231
12636.637215621167
11705.329128768677
13488.77530625765
12071.711886076824
10767.571059870008
9777.015016754713
8869.580417760144
12506.42325725479
11080.274424335425
9838.96485487746
8002.664715581939
6601.803800283746
5739.9680851813155
11525.989105943863
10112.47079514743
8944.069573955683
7200.243229310611
4997.250725510897
3162.78781558141
2379.2405746715667
10554.31247752084
9185.214456114087
8107.124458018638
6491.6650107609485
4403.910213617965
1848.304465796345
-556.4339976310079
-1210.9677276596597
9597.103639902192
8310.858867486562
7347.78786193684
5897.574722508477
3987.832812519587
1596.2157971442448
-1379.4885085636747
-4666.336584925107
-5085.724360597996
8657.831566374087
7494.591482391271
6676.557500629054
5424.63537837253
3750.3816909006864
1619.90936501669
-1084.1194942290056
-4614.135697078642
-9448.259789607155
-9410.014443432594
7736.696513764243
6731.8714247767575
6090.401180452609
5061.980928918005
3662.258690202582
1860.7591740399155
-434.33141093522414
-3435.9409183698076
-7634.1699880091455
-15695.15181197789
-14302.04856827632
6829.810966977834
6007.554591938513
5571.055160173047
4781.031816614302
3669.8335247094788
2218.1216904967373
367.91150501682256
-2010.0887033384474
-5186.407393827993
-9821.73521505766
-27453.89813709977
-18014.41036039402
5929.025237318761
5298.49616546257
5088.35104868585
4542.515663156316
3713.6955579264923
2596.79165473129
1157.4736880201704
-678.2136789518187
-3051.4723183460997
-6227.126779766939
-10767.096349359997
5023.512794089124
4579.463091188995
4607.262342732089
4305.5371375559
3743.1522211079982
2931.1113838244687
1850.8522295378236
459.30265658428885
-1322.9692154155316
-3634.787889953584
-6730.509056465464
4103.855448932341
3830.3409407812105
4095.4279275397125
4033.6828905595826
3719.729061403484
3180.406649797398
2409.665553892352
1382.0223182915972
50.76085909874859
-1660.2929715797493
-3867.824021478924
3167.987332771261
3042.8006122594657
3529.473493969481
3698.4604163566205
3615.982834506035
3320.7019005177626
2817.851944727189
2092.960400845199
1116.9236899014977
-156.58081947522598
-1800.532576609203
2227.3441476483686
2225.6274267633194
2900.015163537321
3281.8320200717467
3413.96302515604
3338.7316747338073
3070.701707754527
2603.547211689394
1918.5416935960807
985.7603178217228
-236.9912036693473
1311.5963085107069
1408.2648308003538
2215.6089030375324
2778.8674410336735
3104.9151744120254
3228.5312091159394
3169.06340615766
2926.2404580839307
2487.922166420903
1833.8781047762802
934.4238579101176
471.2256602365183
641.6512414871047
1505.5358505568336
2200.6371666032683
2690.6312985989434
2990.5914740208177
3117.2029353425096
3072.9800240667937
2849.6625119483265
2432.651819272713
1801.9055015097804
-223.69451500161662
-4.2267153814658345
820.2110910476481
1576.753419289188
2186.003197081156
2633.114944890264
2922.890164243291
3055.3395873494546
3022.914017441627
2813.648614237201
2411.9891763121377
-683.301413914153
-458.05425767546626
223.4618178859785
955.3124786302272
1621.3597918741557
2174.673705673963
2599.231879965535
2885.985239102246
3023.7312789578195
2999.8051392974035
2800.6499945583964
-849.6136544491026
-707.150912419048
-232.5778597217419
393.9138491485535
1042.064675242016
1646.6136146419228
2167.6043537908176
2581.22487607304
2867.6555723727397
3009.553283049744
2991.7923594307176
-527.7526315120884
-58.300046962878184
503.57763346624745
1092.7274604646386
1660.3801911081855
2164.2796111702064
2572.813669769356
2859.8649601543502
3005.031866552095
-367.47387019829193
61.31846998876709
567.8357306528625
1121.1717813628181
1668.2206972596973
2163.4919220356305
2569.780086995239
2857.8172654991527
-243.33227694495594
135.70770514095472
603.7062640022814
1137.1481380107946
1673.1536659099588
2164.081925796622
2569.593630207203
-153.1143491654468
178.03500564775152
623.941153033753
1146.1991854340986
1676.5138605571
2165.2820188173914
-90.33969023490705
200.36450470541186
635.8710594990098
1151.311056152722
1678.850074338844
-48.55089090880939
211.59749964108175
642.9612533527077
1154.1775002768577
-22.353338757237772
217.22743171535924
646.9092526211889
-7.361275136721817
220.1328535884139
0
-38606.67171078148
-17090.177790117086
-11038.534185144816
-38868.779522039644
-18255.782584360448
-6714.994315216908
-10871.994477433955
-39521.99041734372
-18330.42041885111
-3885.186692872611
-6816.126898407277
-10863.935382333731
-39101.945685064275
-18064.522552567247
-1805.4046823794088
-3884.317291787179
-6828.962907755442
-10887.307902559905
-239.66678404568995
-1819.8654786745617
-3883.216906349102
-6805.086376939633
932.472010179298
-243.7735343027486
-1821.6973289404064
-3880.9929733658387
1801.1483864370248
928.7612284752078
-243.68847097479497
-1817.0988714787443
2411.4904726235104
1799.2896992165945
928.6652748048646
-241.795649141581
2800.5473702368304
2410.299435797704
1799.5123620614681
930.3653081500778
2991.851541876188
2799.939539418119
2410.5691448758444
1800.621943767849
3005.244027162612
2991.5855028880205
2800.287604306018
2411.475245133227
2858.1208974627148
3005.2291153024617
2991.967704836466
2800.9986940085687
2569.978284151812
2858.2805448773793
3005.640047627166
2992.5691673796855
2165.711277127846
2570.270972925319
2858.7099235146093
3006.1572157876567
1679.349060223815
2166.1031492028524
2570.715893757574
2859.170164183082
1154.6476195458595
1679.8208219094045
2166.559183147093
2571.131012450765
647.5111321699383
1155.164167546068
1680.2893701909265
2166.9487139692874
220.59306186940208
648.0765346253231
1155.6334147645666
1680.6353349336441
0.6585474286759282
221.17758876180378
648.5649536876838
1156.0326484324628
1.291971526875857
221.6334971659251
648.7180024052334
1.8604239557562117
222.58095977703334
0
-1852557.580971635
-1855018.2418921117
-1812998.4593202574
-1812453.2274995057
-1855059.3999747566
-1750551.7969372731
-1750649.7195324989
-1812512.2770119405
-1855419.0742767232
-1686712.651125722
-1686705.1719376843
-1750601.2617669166
-1812336.4861959412
-1855464.6217879828
-1606577.8480338098
-1606571.466047445
-1686735.6536747664
-1750684.0101242904
-1812260.0130249823
-1516863.8131529843
-1516869.4676923759
-1606554.468087013
-1686695.480497462
-1750733.1018923079
-1409676.1492227612
-1409672.8152496521
-1516878.4696006684
-1606574.2086702737
-1686667.5239275298
-1286312.8758573665
-1286314.5404484984
-1409668.2699966528
-1516868.6998830577
-1606589.002353363
-1141372.3239930668
-1141371.6809606156
-1286316.673032525
-1409673.0298827128
-1516861.0381779773
-972801.8017240737
-972801.8017239055
-1141370.8757993837
-1286314.4807335439
-1409676.8392242237
-804231.2795721323
-804231.9226050013
-972801.8017237278
-1141371.6963559827
-1286312.7040819873
-659290.7275667909
-659289.0629749566
-804232.7277666655
-972801.8017239255
-1141372.3641622271
-535927.4543933013
-535930.7883676847
-659286.930390251
-804231.9072095632
-972801.8017240955
-428739.79018417763
-428734.1356425423
-535935.3336217548
-659289.1226901361
-804231.2394028929
-339025.75572354655
-339032.13771317335
-428725.13373293396
-535930.5737338383
-659290.8993424317
-258890.95197756446
-258898.43116379585
-339049.13567350816
-428734.90345460305
-535926.7643908964
-195051.80722637105
-194953.88461716007
-258867.94943582546
-339029.39508100605
-428742.5651625726
-132605.1430069938
-133150.3749175376
-195002.3423367829
-258908.12263487646
-339014.6013920651
-93046.02469549557
-90585.36346600534
-133091.3255660774
-194919.593927239
-258936.079216791
-90544.20497881652
-133267.11650700716
-194870.5021355684
-90184.53042435576
-133343.5897229136
-90138.98285131165
</DataArray>
<DataArray type="Float64" Name="T_@_t=0" Format="ascii">
293.14999999999986
293.1499999999998
293.1499999999998
293.15
293.1499999999998
293.15
293.1499999999998
293.15
293.1499999999998
293.15
293.15
293.1499999999998
293.15
293.1499999999998
293.15
293.15
293.15
293.1499999999998
293.15
293.1499999999998
293.15
293.15
293.15
293.15
293.1499999999998
293.15
293.1499999999998
293.15
293.15
293.15
293.15
293.15
293.1499999999998
293.15
293.1499999999998
293.15
293.15
293.15
293.15
293.15
293.15
293.1499999999998
293.15
293.1499999999998
293.15
293.15
293.15
293.15
293.15
293.15
293.15
293.1499999999998
293.15
293.1499999999998
293.15
293.15
293.15
293.15
293.15
293.15
293.15
293.15
293.1499999999998
293.15
293.1499999999998
293.15
293.15
293.15
293.15
293.15
293.15
293.15
293.15
293.15
293.1499999999998
293.15
293.1499999999998
293.15
293.15
293.15
293.15
293.15
293.15
293.15
293.15
293.15
293.15
293.1499999999998
293.15
293.15
293.15
293.15
293.15
293.15
293.15
293.15
293.15
293.15
293.1499999999998
293.15
293.15
293.15
293.15
293.15
293.15
293.15
293.15
293.15
293.15
293.1499999999998
293.15
293.15
293.15
293.15
293.15
293.15
293.15
293.15
293.15
293.15
293.1499999999998
293.15
293.15
293.15
293.15
293.15
293.15
293.15
293.15
293.15
293.15
293.1499999999998
293.15
293.15
293.15
293.15
293.15
293.15
293.15
293.15
293.15
293.15
293.1499999999998
293.15
293.15
293.15
293.15
293.15
293.15
293.15
293.15
293.15
293.15
293.1499999999998
293.15
293.15
293.15
293.15
293.15
293.15
293.15
293.15
293.15
293.15
293.1499999999998
293.15
293.15
293.15
293.15
293.15
293.15
293.15
293.15
293.15
293.15
293.14999999999986
293.1499999999998
293.15
293.15
293.15
293.15
293.15
293.15
293.15
293.15
293.15
293.1499999999998
293.15
293.15
293.15
293.15
293.15
293.15
293.15
293.15
293.1499999999998
293.15000000000003
293.15
293.15
293.15
293.15
293.15
293.15
293.14999999999986
293.15000000000003
293.15
293.15000000000003
293.15
293.15
293.15
293.1499999999998
293.15000000000026
293.15
293.15
293.15000000000003
293.1499999999998
293.1500000000004
293.1500000000006
293.15000000000043
293.15
293.1500000000003
293.1499999999981
293.1500000000007
293.1500000000007
293.1499999999987
293.1500000000084
293.1500000000058
293.1500000000055
293.1499999999664
293.1500000000071
293.15000000014214
293.1499999999998
293.15
293.15
293.1499999999998
293.15
293.15
293.15
293.1499999999998
293.15
293.15
293.15
293.15
293.14999999999986
293.1499999999998
293.15
293.15
293.15
293.1499999999998
293.15
293.15
293.15000000000003
293.1499999999998
293.15
293.15
293.15000000000003
293.1499999999998
293.15
293.15
293.15000000000015
293.1499999999998
293.15
293.15
293.15000000000026
293.1499999999998
293.15
293.15
293.15000000000026
293.1499999999998
293.15
293.14999999999986
293.1500000000003
293.1499999999998
293.15
293.14999999999986
293.1500000000005
293.14999999999986
293.15
293.14999999999986
293.15000000000055
293.14999999999986
293.15000000000015
293.14999999999986
293.15000000000083
293.14999999999986
293.1499999999998
293.1499999999997
293.15000000000117
293.1499999999999
293.1500000000013
293.1499999999999
293.1500000000018
293.15
293.1499999999965
293.14999999999833
293.1500000000026
293.15
293.15000000001754
293.1500000000036
293.15000000000487
293.15000000000003
293.14999999995507
293.14999999998105
293.150000000006
293.1500000000003
293.15000000088276
293.15000000005995
293.15000000002425
293.15000000000026
293.14999999979307
293.1500000000265
293.15000000000236
293.1500000009199
293.1500000000005
293.1500000000792
293.14999999999986
293.1499999999998
293.1499999999998
293.15
293.1499999999998
293.15
293.1499999999998
293.15
293.1499999999998
293.15
293.15
293.1499999999998
293.15
293.1499999999998
293.15
293.15
293.15
293.14999999999986
293.15000000000003
293.1499999999998
293.15
293.15
293.15
293.15
293.1499999999998
293.15000000000003
293.1499999999998
293.15
293.15
293.15
293.15
293.15
293.1500000000004
293.15000000000026
293.1499999999998
293.15
293.15
293.15
293.15
293.15
293.15
293.1499999999981
293.1500000000006
293.1499999999998
293.15
293.15
293.15
293.15
293.15
293.15
293.15
293.1500000000084
293.1500000000007
293.1499999999998
293.15
293.15
293.15
293.15
293.15
293.15
293.15000000000003
293.15000000000043
293.14999999996644
293.1500000000058
293.1499999999998
293.15
293.15
293.15
293.15
293.15
293.15
293.15
293.15
293.1500000000007
293.150000000142
293.1500000000071
293.1499999999998
293.15
293.15
293.15
293.15
293.15
293.15
293.15
293.15
293.15
293.1500000000055
293.1499999999998
293.15
293.15
293.15
293.15
293.15
293.15
293.15
293.15
293.15000000000003
293.1499999999987
293.1499999999998
293.15
293.15
293.15
293.15
293.15
293.15
293.15
293.15
293.15
293.1500000000003
293.1499999999998
293.15
293.15
293.15
293.15
293.15
293.15
293.15
293.15
293.15
293.1499999999998
293.1499999999998
293.15
293.15
293.15
293.15
293.15
293.15
293.15
293.15
293.15
293.15
293.1499999999998
293.15
293.15
293.15
293.15
293.15
293.15
293.15
293.15
293.15
293.15
293.1499999999998
293.15
293.15
293.15
293.15
293.15
293.15
293.15
293.15
293.15
293.15
293.1499999999998
293.15
293.15
293.15
293.15
293.15
293.15
293.15
293.15
293.15
293.15
293.1499999999998
293.15
293.15
293.15
293.15
293.15
293.15
293.15
293.15
293.15
293.15
293.14999999999986
293.1499999999998
293.15
293.15
293.15
293.15
293.15
293.15
293.15
293.15
293.15
293.1499999999998
293.15
293.15
293.15
293.15
293.15
293.15
293.15
293.15
293.1499999999998
293.15
293.15
293.15
293.15
293.15
293.15
293.15
293.1499999999998
293.15
293.15
293.15
293.15
293.15
293.15
293.1499999999998
293.15
293.15
293.15
293.15
293.15
293.1499999999998
293.15
293.15
293.15
293.15
293.1499999999998
293.15
293.15
293.15
293.1499999999998
293.15
293.15
293.1499999999998
293.15
293.1499999999998
293.1500000008839
293.14999999995484
293.15000000001766
293.14999999979256
293.15000000006006
293.1499999999965
293.14999999998105
293.1500000009199
293.1500000000265
293.1500000000013
293.1500000000036
293.15000000002425
293.1500000000792
293.1500000000005
293.1499999999998
293.14999999999833
293.150000000006
293.15000000000236
293.15000000000015
293.1499999999999
293.15000000000487
293.15000000000026
293.15
293.1499999999997
293.1500000000026
293.1500000000003
293.15
293.14999999999986
293.1500000000018
293.15000000000003
293.15
293.14999999999986
293.15000000000117
293.15
293.15
293.14999999999986
293.15000000000083
293.15
293.15
293.14999999999986
293.15000000000055
293.1499999999999
293.15
293.15
293.1500000000005
293.14999999999986
293.15
293.15
293.1500000000003
293.14999999999986
293.15
293.15
293.15000000000026
293.14999999999986
293.15
293.15
293.15000000000026
293.1499999999998
293.15
293.15
293.15000000000015
293.1499999999998
293.15
293.15
293.15000000000003
293.1499999999998
293.15
293.15
293.15000000000003
293.1499999999998
293.15
293.15
293.15
293.1499999999998
293.1499999999998
293.15
293.15
293.1499999999998
293.1499999999998
293.15
293.1499999999998
293.1499999999998
293.1499999999998
293.14999999999986
293.1500000001627
293.15000000138775
293.15000000013777
293.1500000011634
293.14999999935173
293.1500000001553
293.1500000012939
293.1499999995053
293.15000000145784
293.1500000001443
293.1500000012092
293.14999999942097
293.1500000011394
293.1500000001337
293.15000000015095
293.15000000126173
293.14999999946764
293.15000000131397
293.1500000001063
293.15000000014703
293.1500000012297
293.1499999994405
293.1500000012145
293.1500000001216
293.1500000001493
293.1500000012492
293.1499999994564
293.1500000012717
293.1500000001127
293.1500000001478
293.1500000012369
293.1499999994468
293.1500000012381
293.1500000001179
293.15000000014885
293.1500000012455
293.1499999994528
293.1500000012582
293.15000000011486
293.150000000148
293.1500000012384
293.1499999994487
293.15000000124564
293.1500000001167
293.15000000014885
293.1500000012455
293.1499999994521
293.1500000012542
293.1500000001154
293.1500000001478
293.1500000012369
293.1499999994487
293.15000000124735
293.1500000001162
293.1500000001493
293.1500000012492
293.1499999994528
293.1500000012542
293.15000000011565
293.15000000014703
293.1500000012297
293.1499999994468
293.15000000124564
293.1500000001162
293.15000000015095
293.1500000012618
293.1499999994564
293.1500000012582
293.1500000001154
293.1500000001443
293.1500000012092
293.1499999994405
293.1500000012381
293.1500000001167
293.1500000001553
293.1500000012939
293.14999999946764
293.1500000012717
293.15000000011486
293.15000000013777
293.1500000011635
293.14999999942097
293.1500000012145
293.1500000001179
293.1500000001628
293.15000000138747
293.1499999995053
293.15000000131397
293.1500000001127
293.14999999935173
293.1500000011394
293.1500000001216
293.1500000014579
293.1500000001063
293.1500000001337
</DataArray>
<DataArray type="Float64" Name="p_@_t=0.00628" Format="ascii">
-1.2249413995491797E7
-1.2240952625935825E7
-1.2241006165399617E7
-1.223716730401041E7
-1.2235730411719812E7
-1.2232456004271636E7
-1.2232520209695432E7
-1.2234637490352461E7
-1.2231041606585754E7
-1.2228133743158959E7
-1.2229339183136957E7
-1.2231502245595025E7
-1.2235725990700183E7
-1.2226242397754595E7
-1.222347891447089E7
-1.2224961671660373E7
-1.2230073109847087E7
-1.2232402593092239E7
-1.2236251765820716E7
-1.22213884863527E7
-1.2218727829610348E7
-1.2219992153009338E7
-1.222577175319581E7
-1.2230247145899175E7
-1.2234822354640678E7
-1.2237095168983359E7
-1.221653612022884E7
-1.221416369411298E7
-1.221560597035119E7
-1.2220932776360536E7
-1.2226054752693657E7
-1.2231331371428514E7
-1.2238761525901636E7
-1.2237731483434254E7
-1.2211820710407991E7
-1.221022816280936E7
-1.2211482899287166E7
-1.2216751416106341E7
-1.2221765549991796E7
-1.2226782932311999E7
-1.2232909901394784E7
-1.2244629400623828E7
-1.2237771686815955E7
-1.2207362943709325E7
-1.2207367701518271E7
-1.2207746236082941E7
-1.2212508211821027E7
-1.2217539480842426E7
-1.222289898103429E7
-1.2227447978800168E7
-1.223409411699207E7
-1.2252773922985135E7
-1.2236560393214943E7
-1.2203291928072259E7
-1.2205613921273183E7
-1.2204480472192964E7
-1.2208012180249356E7
-1.2213783298400186E7
-1.2218483518050026E7
-1.2223788333806291E7
-1.222778110412875E7
-1.2234843719321016E7
-1.2262353857996259E7
-1.2234103108767783E7
-1.219989445012615E7
-1.2204546638331873E7
-1.22017825814614E7
-1.2203449475187393E7
-1.2209839638996715E7
-1.2215017133737503E7
-1.2219117990379598E7
-1.222439123019485E7
-1.2227830834446017E7
-1.2235659426810311E7
-1.2268226429940268E7
-1.223241900151373E7
-1.2197536447263632E7
-1.2203762076046426E7
-1.219953400835614E7
-1.2199853317475459E7
-1.2205599042174717E7
-1.2211203675725551E7
-1.221582460008515E7
-1.2219507202034276E7
-1.2224810115905346E7
-1.2227760802697137E7
-1.2236247632337037E7
-1.2196429322995244E7
-1.2203087276593823E7
-1.2197834787947556E7
-1.2197314276725039E7
-1.2200831626155797E7
-1.2207737544678586E7
-1.2212063621747361E7
-1.2216352004841406E7
-1.221973543461579E7
-1.2225117283451807E7
-1.2227782120826835E7
-1.2196490256368538E7
-1.2202562316689817E7
-1.2196722757687448E7
-1.2195310313007172E7
-1.2196715511653727E7
-1.2203295718184253E7
-1.2208994808407519E7
-1.2212616046466153E7
-1.2216713251852524E7
-1.2219878313973835E7
-1.222529903348805E7
-1.2197447928857418E7
-1.2202284626432082E7
-1.2196112494769014E7
-1.2193668057913495E7
-1.2193204007522827E7
-1.2197982366321184E7
-1.2205506893462988E7
-1.2209797711578406E7
-1.2213011904513333E7
-1.2216964916323448E7
-1.2219992347916951E7
-1.2199106866991129E7
-1.2202292095808892E7
-1.2195895906479191E7
-1.2192330721379966E7
-1.218995655938981E7
-1.2193171159715401E7
-1.2201129261948198E7
-1.2206599492492503E7
-1.2210395643412419E7
-1.2213309322758466E7
-1.2217122756761545E7
-1.2201602656184413E7
-1.2202449269252859E7
-1.219603190173774E7
-1.2191324588574694E7
-1.2186965178723503E7
-1.21887460528014E7
-1.2195045871174758E7
-1.2203322498660155E7
-1.2207444059485294E7
-1.221086490417618E7
-1.2213509957294986E7
-1.2205569825922862E7
-1.220256750272931E7
-1.2196587835833699E7
-1.2190881158430528E7
-1.2184449192375576E7
-1.2184174279195568E7
-1.2189035015339877E7
-1.219845182525652E7
-1.2204565245684085E7
-1.2208146303021314E7
-1.221117565478172E7
-1.221165305506741E7
-1.2202401924358001E7
-1.219782552457828E7
-1.2191137044812888E7
-1.218304710710759E7
-1.2179559075118333E7
-1.2182851566552604E7
-1.2191589807545982E7
-1.2200767395062475E7
-1.220563041698586E7
-1.2208630776346194E7
-1.222017634261227E7
-1.2203074772846447E7
-1.2199875180533288E7
-1.2192157286420966E7
-1.2183208239795161E7
-1.2175828026363226E7
-1.217589175751423E7
-1.2183766117408263E7
-1.219527839982881E7
-1.2202327376221772E7
-1.2206361658043584E7
-1.222753375102063E7
-1.220414270753505E7
-1.2203216806812013E7
-1.219363844951152E7
-1.2184878170504255E7
-1.2174383187518673E7
-1.2168911056588667E7
-1.2174872276951563E7
-1.2186915400896803E7
-1.2198088131378934E7
-1.2203423408087045E7
-1.2206599627869515E7
-1.219674023567424E7
-1.2187279577545214E7
-1.2176392646497158E7
-1.216415777895231E7
-1.2163621925774975E7
-1.2176622975818079E7
-1.2191392139088409E7
-1.2199615232171083E7
-1.2200367819250094E7
-1.2191220405529514E7
-1.2180739144967955E7
-1.2165273279110895E7
-1.215363990338484E7
-1.216234276310726E7
-1.2181660701381966E7
-1.2194258224236533E7
-1.219487089231134E7
-1.2185480686202751E7
-1.2173721376548063E7
-1.215116287498646E7
-1.2143971794430126E7
-1.2166964840208113E7
-1.2185687241911758E7
-1.2187870222062508E7
-1.2183517021050531E7
-1.216739236416015E7
-1.2135573508146249E7
-1.2144038319681797E7
-1.2173746537432494E7
-1.2183957503812551E7
-1.218491530412108E7
-1.2157773513788825E7
-1.2114468053459153E7
-1.2151759206699116E7
-1.2190038050415102E7
-1.2206977515741644E7
-1.2148332783062702E7
-1.210742236741201E7
-1.2200033312244738E7
-1.2224490589284478E7
-1.2104794251765976E7
-1.2296507100605935E7
-1.2241053517388266E7
-1.2249818353146E7
-1.2270834314387467E7
-1.2231194448243193E7
-1.2236604331842681E7
-1.2271347845546715E7
-1.2230958535168367E7
-1.222771812203787E7
-1.2236704326021245E7
-1.227179513740967E7
-1.223056988073664E7
-1.2225343044857297E7
-1.222775815788924E7
-1.2236851810630722E7
-1.2272040874741485E7
-1.2230387756572405E7
-1.22200068889695E7
-1.222535771288444E7
-1.2227783755902695E7
-1.2236937439101815E7
-1.2217162272863474E7
-1.2220045479880096E7
-1.2225367289001254E7
-1.222782975311652E7
-1.2213569520538928E7
-1.2217185020681242E7
-1.2220084696833447E7
-1.2225373354442213E7
-1.2211295924631381E7
-1.2213616434509473E7
-1.2217205703175995E7
-1.2220126069339735E7
-1.220884187720798E7
-1.2211361429040745E7
-1.2213667577391969E7
-1.221722321461853E7
-1.2206702477764236E7
-1.220895803353943E7
-1.2211438915721271E7
-1.2213709844667781E7
-1.2203972887339678E7
-1.2206889115503993E7
-1.2209103464824852E7
-1.2211495312135736E7
-1.2200399373821339E7
-1.2204234469871974E7
-1.2207120731281297E7
-1.2209208791719818E7
-1.2195566419449992E7
-1.2200857936033988E7
-1.220459209440472E7
-1.2207285140528835E7
-1.218799877821605E7
-1.2196049360207198E7
-1.220139199956287E7
-1.2204845069981558E7
-1.2177588356425973E7
-1.218918617535809E7
-1.2196865670233255E7
-1.220176401912471E7
-1.2158481768158967E7
-1.217844921779414E7
-1.2190388710389316E7
-1.2197427932099102E7
-1.2127868908408806E7
-1.2162112863097867E7
-1.218089708488842E7
-1.2191199150493575E7
-1.2087080226176279E7
-1.213155747072167E7
-1.2165522823754515E7
-1.2182409346050868E7
-1.220294654730452E7
-1.2099150408119136E7
-1.2140613732735436E7
-1.216793592655261E7
-1.2217283529007366E7
-1.2178385100291077E7
-1.2110464487100014E7
-1.2145728009625139E7
-1.2146368224882342E7
-1.2180578096033491E7
-1.2120206845835935E7
-1.2134070627292424E7
-1.2188184489788538E7
-1.2133134052746061E7
-37932.60958697076
-61993.40229186005
-45258.47020101882
-63018.73804202809
-53779.21146169765
-63728.03681924864